<?xml version="1.0" encoding="UTF-8"?>
<UPF version="2.0.1">
  <PP_INFO><![CDATA[
Generated using "atomic" code by A. Dal Corso  v.6.6
Author: ADC
Generation date: 23Oct2020
Pseudopotential type: PAW
Element: Fe
Functional:  SLA  PW   PBX  PBC
    Suggested minimum cutoff for wavefunctions:  46. Ry
    Suggested minimum cutoff for charge density: 237. Ry
    The Pseudo was generated with a Scalar-Relativistic Calculation
    Local Potential by smoothing AE potential with Bessel fncs, cutoff radius:   2.1000
    Valence configuration:
    nl pn  l   occ       Rcut    Rcut US       E pseu
    4S  1  0  1.70      1.300      2.200    -0.364086
    4P  2  1  0.00      1.300      2.200    -0.086202
    3D  3  2  6.30      1.300      1.800    -0.459354
    Generation configuration:
    4S  1  0  1.70      1.300      2.200    -0.364084
    4S  1  0  0.00      1.300      2.200     6.000000
    4P  2  1  0.00      1.300      2.200    -0.086202
    4P  2  1  0.00      1.300      2.200     6.000000
    3D  3  2  6.30      1.300      1.800    -0.459350
    3D  3  2  0.00      1.300      1.800     0.050000
    Pseudization used: troullier-martins
]]>
    <PP_INPUTFILE><![CDATA[
 &input
   title='Fe',
   zed=26.,
   rel=1,
   config='[Ar] 4s1.7 4p0 3d6.3',
   iswitch=3,
   dft='PBE'
 /
 &inputp
   lpaw=.true.,
   pseudotype=3,
   file_pseudopw='Fe.pbe-n-kjpaw_psl.1.0.0.UPF',
   author='ADC',
   lloc=-1,
   rcloc=2.1,
   which_augfun='PSQ',
   rmatch_augfun_nc=.true.,
   nlcc=.true.,
   new_core_ps=.true.,
   rcore=1.2,
   tm=.true.
 /
6
4S 1 0 1.70  0.00  1.30  2.20  0.0
4S 1 0 0.00  6.00  1.30  2.20  0.0
4P 2 1 0.00  0.00  1.30  2.20  0.0
4P 2 1 0.00  6.00  1.30  2.20  0.0
3D 3 2 6.30  0.00  1.30  1.80  0.0
3D 3 2 0.00  0.05  1.30  1.80  0.0
]]></PP_INPUTFILE>
  </PP_INFO>
  <!--
 END OF HUMAN READABLE SECTION 
-->
  <PP_HEADER generated="Generated using &quot;atomic&quot; code by A. Dal Corso  v.6.6" author="ADC" date="23Oct2020" comment="" element="Fe" pseudo_type="PAW" relativistic="scalar" is_ultrasoft="true" is_paw="true" is_coulomb="false" has_so="false" has_wfc="true" has_gipaw="false" paw_as_gipaw="false" core_correction="true" functional=" SLA  PW   PBX  PBC" z_valence="8.000000000000e0" total_psenergy="-1.411344705566e2" wfc_cutoff="4.565952158540e1" rho_cutoff="2.370397863973e2" l_max="2" l_max_rho="4" l_local="-1" mesh_size="1191" number_of_wfc="3" number_of_proj="6"/>
  <PP_MESH dx="1.250000000000e-2" mesh="1191" xmin="-7.000000000000e0" rmax="1.000000000000e2" zmesh="2.600000000000e1">
    <PP_R>
      3.507238329055831e-5 3.551353956419316e-5 3.596024490063777e-5 3.641256909850976e-5
      3.687058283438538e-5 3.733435767384265e-5 3.780396608264379e-5 3.827948143805813e-5
      3.876097804032732e-5 3.924853112427518e-5 3.974221687106296e-5 4.024211242009302e-5
      4.074829588106193e-5 4.126084634616527e-5 4.177984390245609e-5 4.230536964435839e-5
      4.283750568633859e-5 4.337633517573586e-5 4.392194230575414e-5 4.447441232861761e-5
      4.503383156889132e-5 4.560028743696972e-5 4.617386844273464e-5 4.675466420938518e-5
      4.734276548744157e-5 4.793826416892498e-5 4.854125330171594e-5 4.915182710409325e-5
      4.977008097945570e-5 5.039611153122924e-5 5.103001657796122e-5 5.167189516860487e-5
      5.232184759799592e-5 5.297997542252374e-5 5.364638147599996e-5 5.432116988572621e-5
      5.500444608876441e-5 5.569631684841136e-5 5.639689027088089e-5 5.710627582219564e-5
      5.782458434529124e-5 5.855192807733582e-5 5.928842066726732e-5 6.003417719355124e-5
      6.078931418216220e-5 6.155394962479093e-5 6.232820299728104e-5 6.311219527829715e-5
      6.390604896822821e-5 6.470988810832851e-5 6.552383830009900e-5 6.634802672491318e-5
      6.718258216388922e-5 6.802763501801234e-5 6.888331732851039e-5 6.974976279748519e-5
      7.062710680880413e-5 7.151548644925388e-5 7.241504052996067e-5 7.332590960807988e-5
      7.424823600875806e-5 7.518216384737181e-5 7.612783905204602e-5 7.708540938645535e-5
      7.805502447291285e-5 7.903683581574841e-5 8.003099682498188e-5 8.103766284029362e-5
      8.205699115529647e-5 8.308914104211363e-5 8.413427377626482e-5 8.519255266186605e-5
      8.626414305714627e-5 8.734921240028488e-5 8.844793023557445e-5 8.956046823991207e-5
      9.068700024962434e-5 9.182770228762973e-5 9.298275259094243e-5 9.415233163852243e-5
      9.533662217947532e-5 9.653580926160764e-5 9.775008026034069e-5 9.897962490798845e-5
      1.002246353234038e-4 1.014853060419970e-4 1.027618340461327e-4 1.040544187959087e-4
      1.053632622603219e-4 1.066885689488265e-4 1.080305459432890e-4 1.093894029303449e-4
      1.107653522341632e-4 1.121586088496218e-4 1.135693904759018e-4 1.149979175505023e-4
      1.164444132836852e-4 1.179091036933516e-4 1.193922176403580e-4 1.208939868642762e-4
      1.224146460196026e-4 1.239544327124241e-4 1.255135875375442e-4 1.270923541160762e-4
      1.286909791335105e-4 1.303097123782581e-4 1.319488067806821e-4 1.336085184526175e-4
      1.352891067273896e-4 1.369908342003358e-4 1.387139667698358e-4 1.404587736788593e-4
      1.422255275570359e-4 1.440145044632531e-4 1.458259839287926e-4 1.476602490010063e-4
      1.495175862875435e-4 1.513982860011340e-4 1.533026420049343e-4 1.552309518584446e-4
      1.571835168640026e-4 1.591606421138629e-4 1.611626365378684e-4 1.631898129517208e-4
      1.652424881058592e-4 1.673209827349527e-4 1.694256216080156e-4 1.715567335791539e-4
      1.737146516389487e-4 1.758997129664874e-4 1.781122589820479e-4 1.803526354004466e-4
      1.826211922850568e-4 1.849182841025072e-4 1.872442697780678e-4 1.895995127517327e-4
      1.919843810350083e-4 1.943992472684159e-4 1.968444887797174e-4 1.993204876428740e-4
      2.018276307377456e-4 2.043663098105414e-4 2.069369215350315e-4 2.095398675745279e-4
      2.121755546446451e-4 2.148443945768500e-4 2.175468043828118e-4 2.202832063195610e-4
      2.230540279554670e-4 2.258597022370481e-4 2.287006675566190e-4 2.315773678207908e-4
      2.344902525198322e-4 2.374397767979039e-4 2.404264015241755e-4 2.434505933648365e-4
      2.465128248560147e-4 2.496135744776110e-4 2.527533267280620e-4 2.559325722000452e-4
      2.591518076571333e-4 2.624115361114164e-4 2.657122669020974e-4 2.690545157750774e-4
      2.724388049635432e-4 2.758656632695653e-4 2.793356261467266e-4 2.828492357837860e-4
      2.864070411893977e-4 2.900095982778952e-4 2.936574699561523e-4 2.973512262115412e-4
      3.010914442009913e-4 3.048787083411728e-4 3.087136103998139e-4 3.125967495881619e-4
      3.165287326546165e-4 3.205101739795311e-4 3.245416956712127e-4 3.286239276631287e-4
      3.327575078123321e-4 3.369430819991318e-4 3.411813042280099e-4 3.454728367298121e-4
      3.498183500652240e-4 3.542185232295438e-4 3.586740437587817e-4 3.631856078370851e-4
      3.677539204055194e-4 3.723796952722190e-4 3.770636552239164e-4 3.818065321388851e-4
      3.866090671012917e-4 3.914720105169949e-4 3.963961222307980e-4 4.013821716451733e-4
      4.064309378404868e-4 4.115432096967281e-4 4.167197860167750e-4 4.219614756512111e-4
      4.272690976247040e-4 4.326434812639871e-4 4.380854663274376e-4 4.435959031362930e-4
      4.491756527075175e-4 4.548255868883314e-4 4.605465884924470e-4 4.663395514380038e-4
      4.722053808872475e-4 4.781449933879650e-4 4.841593170166922e-4 4.902492915237334e-4
      4.964158684799951e-4 5.026600114256723e-4 5.089826960208054e-4 5.153849101977242e-4
      5.218676543154205e-4 5.284319413158517e-4 5.350787968822162e-4 5.418092595992205e-4
      5.486243811153559e-4 5.555252263072261e-4 5.625128734459316e-4 5.695884143655538e-4
      5.767529546337583e-4 5.840076137245363e-4 5.913535251931322e-4 5.987918368531574e-4
      6.063237109559418e-4 6.139503243721394e-4 6.216728687756106e-4 6.294925508296317e-4
      6.374105923754330e-4 6.454282306231138e-4 6.535467183449648e-4 6.617673240712070e-4
      6.700913322882121e-4 6.785200436391985e-4 6.870547751274629e-4 6.956968603221658e-4
      7.044476495666993e-4 7.133085101896879e-4 7.222808267186310e-4 7.313660010962407e-4
      7.405654528994974e-4 7.498806195614613e-4 7.593129565958762e-4 7.688639378245934e-4
      7.785350556078612e-4 7.883278210775099e-4 7.982437643730669e-4 8.082844348808473e-4
      8.184514014760452e-4 8.287462527678759e-4 8.391705973477990e-4 8.497260640408633e-4
      8.604143021602153e-4 8.712369817648064e-4 8.821957939203434e-4 8.932924509635221e-4
      9.045286867695811e-4 9.159062570232262e-4 9.274269394929567e-4 9.390925343088476e-4
      9.509048642438231e-4 9.628657749984672e-4 9.749771354894209e-4 9.872408381414012e-4
      9.996587991828978e-4 1.012232958945589e-3 1.024965282167519e-3 1.037857758300096e-3
      1.050912401818945e-3 1.064131252538676e-3 1.077516375931608e-3 1.091069863450504e-3
      1.104793832855363e-3 1.118690428544326e-3 1.132761821888742e-3 1.147010211572451e-3
      1.161437823935327e-3 1.176046913321158e-3 1.190839762429881e-3 1.205818682674265e-3
      1.220986014541075e-3 1.236344127956772e-3 1.251895422657824e-3 1.267642328565668e-3
      1.283587306166388e-3 1.299732846895175e-3 1.316081473525617e-3 1.332635740563886e-3
      1.349398234647886e-3 1.366371574951422e-3 1.383558413593449e-3 1.400961436052471e-3
      1.418583361586154e-3 1.436426943656216e-3 1.454494970358657e-3 1.472790264859410e-3
      1.491315685835462e-3 1.510074127921531e-3 1.529068522162358e-3 1.548301836470687e-3
      1.567777076091009e-3 1.587497284069137e-3 1.607465541727689e-3 1.627684969147551e-3
      1.648158725655391e-3 1.668890010317322e-3 1.689882062438747e-3 1.711138162070520e-3
      1.732661630521455e-3 1.754455830877285e-3 1.776524168526159e-3 1.798870091690730e-3
      1.821497091966959e-3 1.844408704869672e-3 1.867608510384999e-3 1.891100133529753e-3
      1.914887244917844e-3 1.938973561333822e-3 1.963362846313632e-3 1.988058910732670e-3
      2.013065613401245e-3 2.038386861667531e-3 2.064026612028082e-3 2.089988870746057e-3
      2.116277694477202e-3 2.142897190903708e-3 2.169851519376052e-3 2.197144891562896e-3
      2.224781572109173e-3 2.252765879302444e-3 2.281102185747643e-3 2.309794919050305e-3
      2.338848562508384e-3 2.368267655812779e-3 2.398056795756672e-3 2.428220636953784e-3
      2.458763892565676e-3 2.489691335038175e-3 2.521007796847091e-3 2.552718171253294e-3
      2.584827413067298e-3 2.617340539423469e-3 2.650262630563946e-3 2.683598830632449e-3
      2.717354348478062e-3 2.751534458469123e-3 2.786144501317364e-3 2.821189884912390e-3
      2.856676085166688e-3 2.892608646871247e-3 2.928993184561936e-3 2.965835383396796e-3
      3.003141000044352e-3 3.040915863583104e-3 3.079165876412330e-3 3.117897015174356e-3
      3.157115331688416e-3 3.196826953896253e-3 3.237038086819632e-3 3.277755013529879e-3
      3.318984096129634e-3 3.360731776746938e-3 3.403004578541819e-3 3.445809106725566e-3
      3.489152049592791e-3 3.533040179566496e-3 3.577480354256288e-3 3.622479517529873e-3
      3.668044700598064e-3 3.714183023113418e-3 3.760901694282693e-3 3.808208013993319e-3
      3.856109373953990e-3 3.904613258849658e-3 3.953727247511016e-3 4.003459014098717e-3
      4.053816329302474e-3 4.104807061555238e-3 4.156439178262666e-3 4.208720747048038e-3
      4.261659937012845e-3 4.315265020013221e-3 4.369544371952452e-3 4.424506474089708e-3
      4.480159914365270e-3 4.536513388742407e-3 4.593575702566139e-3 4.651355771939104e-3
      4.709862625114691e-3 4.769105403907742e-3 4.829093365122974e-3 4.889835882001369e-3
      4.951342445684778e-3 5.013622666698913e-3 5.076686276455010e-3 5.140543128770404e-3
      5.205203201408181e-3 5.270676597636249e-3 5.336973547805972e-3 5.404104410950699e-3
      5.472079676404372e-3 5.540909965440511e-3 5.610606032931824e-3 5.681178769030648e-3
      5.752639200870582e-3 5.824998494289488e-3 5.898267955574172e-3 5.972459033227039e-3
      6.047583319754911e-3 6.123652553480397e-3 6.200678620376033e-3 6.278673555921477e-3
      6.357649546984099e-3 6.437618933723176e-3 6.518594211518085e-3 6.600588032920724e-3
      6.683613209632505e-3 6.767682714506212e-3 6.852809683573019e-3 6.939007418095033e-3
      7.026289386643645e-3 7.114669227204011e-3 7.204160749306041e-3 7.294777936182129e-3
      7.386534946952085e-3 7.479446118835526e-3 7.573525969392080e-3 7.668789198789815e-3
      7.765250692102132e-3 7.862925521633619e-3 7.961828949275107e-3 8.061976428888379e-3
      8.163383608720888e-3 8.266066333850796e-3 8.370040648662808e-3 8.475322799355155e-3
      8.581929236478070e-3 8.689876617504266e-3 8.799181809431634e-3 8.909861891418803e-3
      9.021934157453762e-3 9.135416119056082e-3 9.250325508013162e-3 9.366680279150801e-3
      9.484498613138715e-3 9.603798919331297e-3 9.724599838644096e-3 9.846920246466542e-3
      9.970779255611216e-3 1.009619621930029e-2 1.022319073418949e-2 1.035178264343015e-2
      1.048199203976972e-2 1.061383926869128e-2 1.074734493159259e-2 1.088252988900512e-2
      1.101941526385346e-2 1.115802244475598e-2 1.129837308936665e-2 1.144048912775926e-2
      1.158439276585393e-2 1.173010648888690e-2 1.187765306492384e-2 1.202705554841746e-2
      1.217833728380975e-2 1.233152190917965e-2 1.248663335993653e-2 1.264369587256016e-2
      1.280273398838768e-2 1.296377255744825e-2 1.312683674234592e-2 1.329195202219133e-2
      1.345914419658290e-2 1.362843938963803e-2 1.379986405407507e-2 1.397344497534659e-2
      1.414920927582470e-2 1.432718441903896e-2 1.450739821396758e-2 1.468987881938266e-2
      1.487465474825006e-2 1.506175487218458e-2 1.525120842596126e-2 1.544304501208334e-2
      1.563729460540767e-2 1.583398755782841e-2 1.603315460301955e-2 1.623482686123714e-2
      1.643903584418180e-2 1.664581345992260e-2 1.685519201788268e-2 1.706720423388769e-2
      1.728188323527776e-2 1.749926256608361e-2 1.771937619226793e-2 1.794225850703264e-2
      1.816794433619287e-2 1.839646894361862e-2 1.862786803674472e-2 1.886217777215024e-2
      1.909943476120807e-2 1.933967607580542e-2 1.958293925413651e-2 1.982926230656786e-2
      2.007868372157755e-2 2.033124247176914e-2 2.058697801996116e-2 2.084593032535335e-2
      2.110813984977026e-2 2.137364756398353e-2 2.164249495411370e-2 2.191472402811242e-2
      2.219037732232641e-2 2.246949790814369e-2 2.275212939872367e-2 2.303831595581176e-2
      2.332810229663975e-2 2.362153370091300e-2 2.391865601788540e-2 2.421951567352348e-2
      2.452415967776053e-2 2.483263563184200e-2 2.514499173576336e-2 2.546127679580131e-2
      2.578154023213999e-2 2.610583208659288e-2 2.643420303042201e-2 2.676670437225547e-2
      2.710338806610437e-2 2.744430671948088e-2 2.778951360161818e-2 2.813906265179391e-2
      2.849300848775838e-2 2.885140641426854e-2 2.921431243172957e-2 2.958178324494504e-2
      2.995387627197711e-2 3.033064965311834e-2 3.071216225997605e-2 3.109847370467127e-2
      3.148964434915318e-2 3.188573531463079e-2 3.228680849112337e-2 3.269292654713071e-2
      3.310415293942532e-2 3.352055192296763e-2 3.394218856094598e-2 3.436912873494292e-2
      3.480143915522922e-2 3.523918737118762e-2 3.568244178186744e-2 3.613127164667215e-2
      3.658574709618132e-2 3.704593914310855e-2 3.751191969339743e-2 3.798376155745700e-2
      3.846153846153846e-2 3.894532505925518e-2 3.943519694324728e-2 3.993123065699329e-2
      4.043350370677018e-2 4.094209457376382e-2 4.145708272633199e-2 4.197854863242123e-2
      4.250657377214032e-2 4.304124065049159e-2 4.358263281026255e-2 4.413083484507971e-2
      4.468593241262630e-2 4.524801224802658e-2 4.581716217739842e-2 4.639347113157618e-2
      4.697702916000654e-2 4.756792744481866e-2 4.816625831507173e-2 4.877211526118155e-2
      4.938559294952852e-2 5.000678723724967e-2 5.063579518721624e-2 5.127271508320012e-2
      5.191764644523093e-2 5.257069004514602e-2 5.323194792233661e-2 5.390152339969130e-2
      5.457952109974070e-2 5.526604696100482e-2 5.596120825454620e-2 5.666511360073137e-2
      5.737787298620272e-2 5.809959778106436e-2 5.883040075628384e-2 5.957039610131281e-2
      6.031969944192959e-2 6.107842785830554e-2 6.184669990329938e-2 6.262463562098119e-2
      6.341235656538955e-2 6.420998581952474e-2 6.501764801458045e-2 6.583546934941788e-2
      6.666357761028447e-2 6.750210219078070e-2 6.835117411207841e-2 6.921092604339265e-2
      7.008149232271192e-2 7.096300897778850e-2 7.185561374739315e-2 7.275944610283731e-2
      7.367464726976526e-2 7.460136025022135e-2 7.553972984499417e-2 7.648990267624200e-2
      7.745202721040297e-2 7.842625378139291e-2 7.941273461409568e-2 8.041162384814836e-2
      8.142307756202595e-2 8.244725379742922e-2 8.348431258397857e-2 8.453441596421934e-2
      8.559772801894113e-2 8.667441489281572e-2 8.776464482035784e-2 8.886858815221171e-2
      8.998641738176893e-2 9.111830717212083e-2 9.226443438334993e-2 9.342497810016495e-2
      9.460011965988270e-2 9.579004268076277e-2 9.699493309069807e-2 9.821497915626642e-2
      9.945037151214796e-2 1.007013031909116e-1 1.019679696531772e-1 1.032505688181566e-1
      1.045493010945787e-1 1.058643694120041e-1 1.071959792525327e-1 1.085443386829115e-1
      1.099096583870448e-1 1.112921516989139e-1 1.126920346359117e-1 1.141095259325950e-1
      1.155448470748628e-1 1.169982223345641e-1 1.184698788045397e-1 1.199600464341075e-1
      1.214689580649911e-1 1.229968494677029e-1 1.245439593783832e-1 1.261105295361028e-1
      1.276968047206366e-1 1.293030327907089e-1 1.309294647227238e-1 1.325763546499799e-1
      1.342439599023785e-1 1.359325410466336e-1 1.376423619269839e-1 1.393736897064208e-1
      1.411267949084325e-1 1.429019514592732e-1 1.446994367307659e-1 1.465195315836409e-1
      1.483625204114220e-1 1.502286911848636e-1 1.521183354969453e-1 1.540317486084357e-1
      1.559692294940260e-1 1.579310808890466e-1 1.599176093367696e-1 1.619291252363062e-1
      1.639659428911085e-1 1.660283805580787e-1 1.681167604972984e-1 1.702314090223822e-1
      1.723726565514640e-1 1.745408376588272e-1 1.767362911271804e-1 1.789593600005950e-1
      1.812103916381056e-1 1.834897377679847e-1 1.857977545427032e-1 1.881348025945772e-1
      1.905012470921197e-1 1.928974577970986e-1 1.953238091223108e-1 1.977806801900881e-1
      2.002684548915327e-1 2.027875219465034e-1 2.053382749643530e-1 2.079211125054295e-1
      2.105364381433541e-1 2.131846605280779e-1 2.158661934497367e-1 2.185814559033057e-1
      2.213308721540666e-1 2.241148718039030e-1 2.269338898584238e-1 2.297883667949355e-1
      2.326787486312673e-1 2.356054869954610e-1 2.385690391963412e-1 2.415698682949679e-1
      2.446084431769934e-1 2.476852386259255e-1 2.508007353973120e-1 2.539554202938628e-1
      2.571497862415105e-1 2.603843323664336e-1 2.636595640730455e-1 2.669759931229629e-1
      2.703341377149731e-1 2.737345225659999e-1 2.771776789930948e-1 2.806641449964553e-1
      2.841944653434866e-1 2.877691916539264e-1 2.913888824860326e-1 2.950541034238626e-1
      2.987654271656453e-1 3.025234336132651e-1 3.063287099628762e-1 3.101818507966491e-1
      3.140834581756788e-1 3.180341417340567e-1 3.220345187741256e-1 3.260852143629378e-1
      3.301868614299191e-1 3.343401008657692e-1 3.385455816226005e-1 3.428039608153361e-1
      3.471159038243897e-1 3.514820843996280e-1 3.559031847656496e-1 3.603798957283821e-1
      3.649129167830202e-1 3.695029562233274e-1 3.741507312523034e-1 3.788569680942531e-1
      3.836224021082587e-1 3.884477779030790e-1 3.933338494535004e-1 3.982813802181422e-1
      4.032911432587527e-1 4.083639213610004e-1 4.135005071567829e-1 4.187017032480826e-1
      4.239683223323694e-1 4.293011873295909e-1 4.347011315107535e-1 4.401689986281200e-1
      4.457056430470540e-1 4.513119298795082e-1 4.569887351192075e-1 4.627369457785208e-1
      4.685574600270566e-1 4.744511873320103e-1 4.804190486002621e-1 4.864619763222778e-1
      4.925809147178093e-1 4.987768198834282e-1 5.050506599419242e-1 5.114034151935688e-1
      5.178360782692966e-1 5.243496542857986e-1 5.309451610025806e-1 5.376236289809865e-1
      5.443861017452233e-1 5.512336359454211e-1 5.581673015227278e-1 5.651881818764978e-1
      5.722973740335711e-1 5.794959888196844e-1 5.867851510330454e-1 5.941659996200778e-1
      6.016396878533912e-1 6.092073835119781e-1 6.168702690636798e-1 6.246295418499561e-1
      6.324864142729639e-1 6.404421139850055e-1 6.484978840803480e-1 6.566549832894562e-1
      6.649146861756794e-1 6.732782833343958e-1 6.817470815946786e-1 6.903224042234868e-1
      6.990055911324257e-1 7.077979990871182e-1 7.167010019191929e-1 7.257159907409570e-1
      7.348443741627565e-1 7.440875785130699e-1 7.534470480613854e-1 7.629242452438589e-1
      7.725206508918334e-1 7.822377644632165e-1 7.920771042767706e-1 8.020402077493628e-1
      8.121286316361779e-1 8.223439522739747e-1 8.326877658273874e-1 8.431616885383258e-1
      8.537673569785255e-1 8.645064283052548e-1 8.753805805202589e-1 8.863915127319462e-1
      8.975409454208739e-1 9.088306207085866e-1 9.202623026298136e-1 9.318377774081146e-1
      9.435588537349759e-1 9.554273630524172e-1 9.674451598391691e-1 9.796141219004268e-1
      9.919361506612717e-1 1.004413171463769e0 1.017047133867800e0 1.029840011955698e0
      1.042793804640689e0 1.055910535979235e0 1.069192255487296e0 1.082641038460564e0
      1.096258986298743e0 1.110048226833886e0 1.124010914662882e0 1.138149231484115e0
      1.152465386438347e0 1.166961616453922e0 1.181640186596267e0 1.196503390421833e0
      1.211553550336460e0 1.226793017958250e0 1.242224174485028e0 1.257849431066391e0
      1.273671229180473e0 1.289692041015422e0 1.305914369855675e0 1.322340750473124e0
      1.338973749523156e0 1.355815965945713e0 1.372870031371381e0 1.390138610532574e0
      1.407624401679925e0 1.425330137003869e0 1.443258583061577e0 1.461412541209223e0
      1.479794848039698e0 1.498408375825847e0 1.517256032969252e0 1.536340764454690e0
      1.555665552310286e0 1.575233416073454e0 1.595047413262724e0 1.615110639855462e0
      1.635426230771646e0 1.655997360363691e0 1.676827242912443e0 1.697919133129434e0
      1.719276326665418e0 1.740902160625337e0 1.762800014089751e0 1.784973308642807e0
      1.807425508906898e0 1.830160123083989e0 1.853180703503801e0 1.876490847178864e0
      1.900094196366546e0 1.923994439138185e0 1.948195309955333e0 1.972700590253296e0
      1.997514109031980e0 2.022639743454171e0 2.048081419451373e0 2.073843112337214e0
      2.099928847428624e0 2.126342700674788e0 2.153088799294006e0 2.180171322418611e0
      2.207594501747932e0 2.235362622209538e0 2.263480022628749e0 2.291951096406577e0
      2.320780292206233e0 2.349972114648207e0 2.379531125014149e0 2.409461941959574e0
      2.439769242235513e0 2.470457761419306e0 2.501532294654500e0 2.532997697400142e0
      2.564858886189431e0 2.597120839397929e0 2.629788598021470e0 2.662867266463794e0
      2.696362013334148e0 2.730278072254882e0 2.764620742679195e0 2.799395390719221e0
      2.834607449984455e0 2.870262422430804e0 2.906365879220257e0 2.942923461591380e0
      2.979940881740807e0 3.017423923715737e0 3.055378444317744e0 3.093810374017897e0
      3.132725717883390e0 3.172130556515889e0 3.212031047001588e0 3.252433423873308e0
      3.293344000084641e0 3.334769167996342e0 3.376715400375189e0 3.419189251405320e0
      3.462197357712377e0 3.505746439400478e0 3.549843301102226e0 3.594494833041990e0
      3.639708012112467e0 3.685489902964880e0 3.731847659112825e0 3.778788524050003e0
      3.826319832382075e0 3.874449010972659e0 3.923183580103834e0 3.972531154651186e0
      4.022499445273624e0 4.073096259618231e0 4.124329503540175e0 4.176207182338062e0
      4.228737402004755e0 4.281928370493937e0 4.335788399002666e0 4.390325903269963e0
      4.445549404891834e0 4.501467532652766e0 4.558089023873975e0 4.615422725778675e0
      4.673477596874422e0 4.732262708352944e0 4.791787245507518e0 4.852060509168161e0
      4.913091917154963e0 4.974891005749575e0 5.037467431185330e0 5.100830971156025e0
      5.164991526343674e0 5.229959121965582e0 5.295743909340720e0 5.362356167475967e0
      5.429806304672192e0 5.498104860150539e0 5.567262505699275e0 5.637290047341200e0
      5.708198427022177e0 5.779998724320807e0 5.852702158179601e0 5.926320088658035e0
      6.000864018707504e0 6.076345595968748e0 6.152776614591795e0 6.230169017078783e0
      6.308534896150077e0 6.387886496633697e0 6.468236217378671e0 6.549596613192351e0
      6.631980396802090e0 6.715400440841710e0 6.799869779862787e0 6.885401612371410e0
      6.972009302890437e0 7.059706384047692e0 7.148506558690551e0 7.238423702026942e0
      7.329471863793461e0 7.421665270450638e0 7.515018327405806e0 7.609545621264067e0
      7.705261922107378e0 7.802182185802495e0 7.900321556337821e0 7.999695368189640e0
      8.100319148718260e0 8.202208620594080e0 8.305379704254388e0 8.409848520390931e0
      8.515631392468737e0 8.622744849276819e0 8.731205627510697e0 8.841030674387648e0
      8.952237150294703e0 9.064842431469947e0 9.178864112717687e0 9.294320010157568e0
      9.411228164008476e0 9.529606841407320e0 9.649474539263254e0 9.770849987147972e0
      9.893752150222115e0 1.001820023219872e1 1.014421367834382e1 1.027181217851470e1
      1.040101567023665e1 1.053184434181810e1 1.066431863550515e1 1.079845925067575e1
      1.093428714707388e1 1.107182354808474e1 1.121108994405078e1 1.135210809562970e1
      1.149490003719464e1 1.163948808027692e1 1.178589481705248e1 1.193414312387179e1
      1.208425616483439e1 1.223625739540839e1 1.239017056609525e1 1.254601972614109e1
      1.270382922729419e1 1.286362372761019e1 1.302542819530491e1 1.318926791265556e1
      1.335516847995135e1 1.352315581949342e1 1.369325617964535e1 1.386549613893453e1
      1.403990261020496e1 1.421650284482267e1 1.439532443693355e1 1.457639532777521e1
      1.475974381004278e1 1.494539853230957e1 1.513338850350371e1 1.532374309744061e1
      1.551649205741289e1 1.571166550083771e1 1.590929392396265e1 1.610940820663093e1
      1.631203961710633e1 1.651721981695900e1 1.672498086601264e1 1.693535522735380e1
      1.714837577240452e1 1.736407578605829e1 1.758248897188111e1 1.780364945737768e1
      1.802759179932373e1 1.825435098916588e1 1.848396245848882e1 1.871646208455181e1
      1.895188619589449e1 1.919027157801316e1 1.943165547910883e1 1.967607561590708e1
      1.992357017955161e1 2.017417784157156e1 2.042793775992389e1 2.068488958511221e1
      2.094507346638190e1 2.120853005799380e1 2.147530052557638e1 2.174542655255789e1
      2.201895034667969e1 2.229591464659102e1 2.257636272852726e1 2.286033841307185e1
      2.314788607200316e1 2.343905063522800e1 2.373387759780168e1 2.403241302703696e1
      2.433470356970208e1 2.464079645930926e1 2.495073952349535e1 2.526458119149461e1
      2.558237050170622e1 2.590415710935652e1 2.622999129425752e1 2.655992396866363e1
      2.689400668522638e1 2.723229164504998e1 2.757483170584769e1 2.792168039020082e1
      2.827289189392207e1 2.862852109452335e1 2.898862355979082e1 2.935325555646737e1
      2.972247405904423e1 3.009633675866372e1 3.047490207213316e1 3.085822915105304e1
      3.124637789105939e1 3.163940894118241e1 3.203738371332342e1 3.244036439185014e1
      3.284841394331353e1 3.326159612628622e1 3.367997550132485e1 3.410361744105805e1
      3.453258814040071e1 3.496695462689740e1 3.540678477119543e1 3.585214729764955e1
      3.630311179506076e1 3.675974872754914e1 3.722212944556448e1 3.769032619703478e1
      3.816441213865486e1 3.864446134731777e1 3.913054883168889e1 3.962275054392668e1
      4.012114339155016e1 4.062580524945559e1 4.113681497208517e1 4.165425240574755e1
      4.217819840109455e1 4.270873482575404e1 4.324594457712156e1 4.378991159531389e1
      4.434072087628418e1 4.489845848510329e1 4.546321156940738e1 4.603506837301476e1
      4.661411824971455e1 4.720045167722795e1 4.779416027134600e1 4.839533680024449e1
      4.900407519897900e1 4.962047058416302e1 5.024461926882934e1 5.087661877747991e1
      5.151656786132381e1 5.216456651370724e1 5.282071598573817e1 5.348511880210635e1
      5.415787877710368e1 5.483910103084509e1 5.552889200569348e1 5.622735948289229e1
      5.693461259940563e1 5.765076186497200e1 5.837591917937127e1 5.911019784990894e1
      5.985371260912139e1 6.060657963270224e1 6.136891655765574e1 6.214084250067751e1
      6.292247807676643e1 6.371394541807174e1 6.451536819297552e1 6.532687162541700e1
      6.614858251445863e1 6.698062925409835e1 6.782314185333229e1 6.867625195646795e1
      6.954009286369474e1 7.041479955191202e1 7.130050869581918e1 7.219735868927220e1
      7.310548966690695e1 7.402504352603643e1 7.495616394882211e1 7.589899642472417e1
      7.685368827323543e1 7.782038866689928e1 7.879924865461915e1 7.979042118525975e1
      8.079406113154530e1 8.181032531425958e1 8.283937252674846e1 8.388136355973266e1
      8.493646122643119e1 8.600483038800077e1 8.708663797929679e1 8.818205303495610e1
      8.929124671580988e1 9.041439233562761e1 9.155166538819715e1 9.270324357474706e1
      9.386930683171157e1 9.505003735884712e1 9.624561964770098e1 9.745624051043784e1
      9.868208910903091e1 9.992335698481734e1 1.011802380884283e2
      </PP_R>
    <PP_RAB>
      4.384047911319789e-7 4.439192445524146e-7 4.495030612579721e-7 4.551571137313721e-7
      4.608822854298173e-7 4.666794709230333e-7 4.725495760330474e-7 4.784935179757266e-7
      4.845122255040915e-7 4.906066390534397e-7 4.967777108882871e-7 5.030264052511627e-7
      5.093536985132742e-7 5.157605793270658e-7 5.222480487807011e-7 5.288171205544799e-7
      5.354688210792323e-7 5.422041896966983e-7 5.490242788219267e-7 5.559301541077200e-7
      5.629228946111415e-7 5.700035929621215e-7 5.771733555341831e-7 5.844333026173148e-7
      5.917845685930196e-7 5.992283021115624e-7 6.067656662714493e-7 6.143978388011657e-7
      6.221260122431962e-7 6.299513941403655e-7 6.378752072245153e-7 6.458986896075610e-7
      6.540230949749491e-7 6.622496927815468e-7 6.705797684499995e-7 6.790146235715778e-7
      6.875555761095551e-7 6.962039606051420e-7 7.049611283860112e-7 7.138284477774455e-7
      7.228073043161405e-7 7.318991009666977e-7 7.411052583408415e-7 7.504272149193905e-7